#!/bin/bash

# Joey Wunderlich
# scp arguments to preferred server. Does not work with files that have
# spaces in it (if you're a heathen that requires support for this,
# temporary workaround is to get the folder containing the file as the
# recursive portion does handle this correctly). Configured for mac.
# Forces preference configuration if none currently exist.
#
# args
## -u acc : use account 'acc' rather than. Must be first option (for now)
## -p : pull from server to current directory
## -s, --set : set user connection preferences

if [[ $1 == "-u" ]]
then
	acc=$2
	shift
	shift
else
	acc=$USER
fi

userPref="${HOME}/Library/Preferences/${acc}prefjwscp"

if [[ $1 == "-s" || $1 == "--set" || ! -f $userPref ]]
then
	echo "Setting connection preferences"
	read -p "   Remote username: " user
	read -p "   Remote Server: " server
	read -p "   Home directory on server: " homeDir

	echo $user $server $homeDir > ${userPref}
	echo "Connection set to home directory ${user}@${server}:${homeDir}"
	exit 0
fi

read user server homeDir < ${userPref}

## If pulling
if [[ $1 == "-p" && $# -gt 1 ]]
then
	## concatenate all arguments
	shift
	for var in "${@}"
	do
		output_val="$output_val $var"
	done
	
	# trim leading space
	output_val=`echo $output_val`
	## recursive scp all given files to current directory
	scp -r ${user}@${server}:"$output_val" .
	exit 0
fi

## Else pushing
for var in "$@"
do
	if [[ -f $var || -d $var ]]
	then
		output_val="$output_val $var"
	else
		echo "${0}: ${var}: No such file or directory"
	fi
done

# trim leading space
output_val=`echo $output_val`
if [[ -z $output_val ]]
then
	echo "${0}: no valid arguments, exiting"
	exit 1
else
	scp -r ${output_val} ${user}@${server}:${homeDir}
	exit 0
fi